thermo_style	custom time atoms
WARNING: New thermo_style command, previous thermo_modify settings will be lost (../output.cpp:690)
thermo_modify	flush yes lost warn

#variable	atoms_count equal "count(all,top_cone)"
#fix extra all print 2000 ${atoms_count}

# Initial run to fill up the cone

run		20000
Per MPI rank memory allocation (min/avg/max) = 8.31 | 8.31 | 8.31 Mbytes
Time Atoms 
           0        0 
0.0085850333     1400 
 0.017170067     1400 
   0.0257551     1400 
 0.034340133     1400 
 0.042925166     1400 
   0.0515102     1400 
 0.060095233     1400 
 0.068680266     1400 
 0.077265299     1400 
 0.085850333     1400 
 0.094435366     1400 
   0.1030204     1400 
  0.11160543     1400 
  0.12019047     1400 
   0.1287755     1400 
  0.13736053     1400 
  0.14594557     1400 
   0.1545306     1400 
  0.16311563     1400 
  0.17170067     1400 
   0.1802857     1400 
  0.18887073     1400 
  0.19745576     1400 
   0.2060408     1400 
  0.21462583     1400 
  0.22321086     1400 
   0.2317959     1400 
  0.24038093     1400 
  0.24896596     1400 
    0.257551     1400 
  0.26613603     1400 
  0.27472106     1400 
   0.2833061     1400 
  0.29189113     1400 
  0.30047616     1400 
   0.3090612     1400 
  0.31764623     1400 
  0.32623126     1400 
   0.3348163     1400 
  0.34340133     1400 
  0.35198636     1400 
   0.3605714     1400 
  0.36915643     1400 
  0.37774146     1400 
   0.3863265     1400 
  0.39491153     1400 
  0.40349656     1400 
   0.4120816     1400 
  0.42066663     1400 
  0.42925166     1400 
   0.4378367     1400 
  0.44642173     1400 
  0.45500676     1400 
   0.4635918     1400 
  0.47217683     1400 
  0.48076186     1400 
   0.4893469     1400 
  0.49793193     1400 
  0.50651696     1400 
    0.515102     1400 
  0.52368703     1400 
  0.53227206     1400 
   0.5408571     1400 
  0.54944213     1400 
  0.55802716     1400 
  0.56661219     1400 
  0.57519723     1400 
  0.58378226     1400 
  0.59236729     1400 
  0.60095233     1400 
  0.60953736     1400 
  0.61812239     1400 
  0.62670743     1400 
  0.63529246     1400 
  0.64387749     1400 
  0.65246253     1400 
  0.66104756     1400 
  0.66963259     1400 
  0.67821763     1400 
  0.68680266     1400 
  0.69538769     1400 
  0.70397273     1400 
  0.71255776     1400 
  0.72114279     1400 
  0.72972783     1400 
  0.73831286     1400 
  0.74689789     1400 
  0.75548293     1400 
  0.76406796     1400 
  0.77265299     1400 
  0.78123803     1400 
  0.78982306     1400 
  0.79840809     1400 
  0.80699313     1400 
  0.81557816     1400 
  0.82416319     1400 
  0.83274823     1400 
  0.84133326     1400 
  0.84991829     1400 
  0.85850333     1400 
  0.86708836     1400 
  0.87567339     1400 
  0.88425843     1400 
  0.89284346     1400 
  0.90142849     1400 
  0.91001353     1400 
  0.91859856     1400 
  0.92718359     1400 
  0.93576862     1400 
  0.94435366     1400 
  0.95293869     1400 
  0.96152372     1400 
  0.97010876     1400 
  0.97869379     1400 
  0.98727882     1400 
  0.99586386     1400 
   1.0044489     1400 
   1.0130339     1400 
    1.021619     1400 
    1.030204     1400 
    1.038789     1400 
   1.0473741     1400 
   1.0559591     1400 
   1.0645441     1400 
   1.0731292     1400 
   1.0817142     1400 
   1.0902992     1400 
   1.0988843     1400 
   1.1074693     1400 
   1.1160543     1400 
   1.1246394     1400 
   1.1332244     1400 
   1.1418094     1400 
   1.1503945     1400 
   1.1589795     1400 
   1.1675645     1400 
   1.1761496     1400 
   1.1847346     1400 
   1.1933196     1400 
   1.2019047     1400 
   1.2104897     1400 
   1.2190747     1400 
   1.2276598     1400 
   1.2362448     1400 
   1.2448298     1400 
   1.2534149     1400 
   1.2619999     1400 
   1.2705849     1400 
     1.27917     1400 
    1.287755     1400 
     1.29634     1400 
   1.3049251     1400 
   1.3135101     1400 
   1.3220951     1400 
   1.3306802     1400 
   1.3392652     1400 
   1.3478502     1400 
   1.3564353     1400 
   1.3650203     1400 
   1.3736053     1400 
   1.3821904     1400 
   1.3907754     1400 
   1.3993604     1400 
   1.4079455     1400 
   1.4165305     1400 
   1.4251155     1400 
   1.4337006     1400 
   1.4422856     1400 
   1.4508706     1400 
   1.4594557     1400 
   1.4680407     1399 
   1.4766257     1399 
   1.4852108     1398 
   1.4937958     1397 
   1.5023808     1397 
   1.5109659     1396 
   1.5195509     1396 
   1.5281359     1396 
    1.536721     1396 
    1.545306     1395 
    1.553891     1395 
   1.5624761     1395 
   1.5710611     1392 
   1.5796461     1392 
   1.5882312     1392 
   1.5968162     1392 
   1.6054012     1391 
   1.6139863     1391 
   1.6225713     1389 
   1.6311563     1386 
   1.6397414     1386 
   1.6483264     1383 
   1.6569114     1382 
   1.6654965     1380 
   1.6740815     1380 
   1.6826665     1380 
   1.6912516     1380 
   1.6998366     1380 
   1.7084216     1379 
   1.7170067     1379 
   1.7255917     1378 
   1.7341767     1377 
   1.7427618     1377 
   1.7513468     1376 
   1.7599318     1376 
   1.7685169     1374 
   1.7771019     1373 
   1.7856869     1372 
    1.794272     1371 
    1.802857     1368 
    1.811442     1367 
   1.8200271     1367 
   1.8286121     1367 
   1.8371971     1367 
   1.8457822     1366 
   1.8543672     1366 
   1.8629522     1363 
   1.8715372     1363 
   1.8801223     1362 
   1.8887073     1362 
   1.8972923     1362 
   1.9058774     1361 
   1.9144624     1361 
   1.9230474     1358 
   1.9316325     1358 
   1.9402175     1358 
   1.9488025     1355 
   1.9573876     1354 
   1.9659726     1354 
   1.9745576     1352 
   1.9831427     1352 
   1.9917277     1352 
   2.0003127     1352 
   2.0088978     1352 
   2.0174828     1352 
   2.0260678     1352 
   2.0346529     1350 
   2.0432379     1350 
   2.0518229     1349 
    2.060408     1348 
    2.068993     1347 
    2.077578     1346 
   2.0861631     1346 
   2.0947481     1346 
   2.1033331     1346 
   2.1119182     1345 
   2.1205032     1345 
   2.1290882     1345 
   2.1376733     1345 
   2.1462583     1343 
   2.1548433     1341 
   2.1634284     1340 
   2.1720134     1339 
   2.1805984     1339 
   2.1891835     1339 
   2.1977685     1338 
   2.2063535     1337 
   2.2149386     1337 
   2.2235236     1337 
   2.2321086     1337 
   2.2406937     1337 
   2.2492787     1337 
   2.2578637     1337 
   2.2664488     1337 
   2.2750338     1336 
   2.2836188     1335 
   2.2922039     1335 
   2.3007889     1335 
   2.3093739     1335 
    2.317959     1335 
    2.326544     1334 
    2.335129     1334 
   2.3437141     1334 
   2.3522991     1334 
   2.3608841     1334 
   2.3694692     1334 
   2.3780542     1333 
   2.3866392     1333 
   2.3952243     1333 
   2.4038093     1332 
   2.4123943     1332 
   2.4209794     1332 
   2.4295644     1332 
   2.4381494     1332 
   2.4467345     1332 
   2.4553195     1330 
   2.4639045     1330 
   2.4724896     1329 
   2.4810746     1329 
   2.4896596     1329 
   2.4982447     1329 
   2.5068297     1329 
   2.5154147     1329 
   2.5239998     1329 
   2.5325848     1329 
   2.5411698     1329 
   2.5497549     1329 
   2.5583399     1329 
   2.5669249     1328 
     2.57551     1328 
    2.584095     1328 
     2.59268     1328 
   2.6012651     1328 
   2.6098501     1328 
   2.6184351     1327 
   2.6270202     1327 
   2.6356052     1325 
   2.6441902     1325 
   2.6527753     1325 
   2.6613603     1325 
   2.6699453     1324 
   2.6785304     1324 
   2.6871154     1324 
   2.6957004     1324 
   2.7042855     1324 
   2.7128705     1324 
   2.7214555     1324 
   2.7300406     1324 
   2.7386256     1323 
   2.7472106     1323 
   2.7557957     1323 
   2.7643807     1323 
   2.7729657     1322 
   2.7815508     1322 
   2.7901358     1321 
   2.7987208     1321 
   2.8073059     1320 
   2.8158909     1320 
   2.8244759     1320 
    2.833061     1320 
    2.841646     1319 
    2.850231     1319 
   2.8588161     1319 
   2.8674011     1319 
   2.8759861     1317 
   2.8845712     1317 
   2.8931562     1317 
   2.9017412     1317 
   2.9103263     1317 
   2.9189113     1317 
   2.9274963     1316 
   2.9360814     1316 
   2.9446664     1316 
   2.9532514     1316 
   2.9618365     1316 
   2.9704215     1316 
   2.9790065     1316 
   2.9875916     1316 
   2.9961766     1316 
   3.0047616     1316 
   3.0133467     1316 
   3.0219317     1316 
   3.0305167     1315 
   3.0391018     1315 
   3.0476868     1315 
   3.0562718     1312 
   3.0648569     1312 
   3.0734419     1312 
   3.0820269     1311 
    3.090612     1311 
    3.099197     1311 
    3.107782     1311 
   3.1163671     1311 
   3.1249521     1311 
   3.1335371     1310 
   3.1421222     1310 
   3.1507072     1310 
   3.1592922     1310 
   3.1678773     1309 
   3.1764623     1308 
   3.1850473     1308 
   3.1936324     1308 
   3.2022174     1308 
   3.2108024     1308 
   3.2193875     1308 
   3.2279725     1308 
   3.2365575     1308 
   3.2451426     1306 
   3.2537276     1306 
   3.2623126     1303 
   3.2708977     1303 
   3.2794827     1303 
   3.2880677     1301 
   3.2966528     1301 
   3.3052378     1301 
   3.3138228     1301 
   3.3224079     1300 
   3.3309929     1299 
   3.3395779     1299 
    3.348163     1299 
    3.356748     1299 
    3.365333     1298 
   3.3739181     1297 
   3.3825031     1297 
   3.3910881     1297 
   3.3996732     1297 
   3.4082582     1297 
   3.4168432     1297 
   3.4254283     1297 
   3.4340133     1297 
Loop time of 6.02752 on 1 procs for 20000 steps with 1297 atoms

95.6% CPU use with 1 MPI tasks x no OpenMP threads

MPI task timing breakdown:
Section |  min time  |  avg time  |  max time  |%varavg| %total
---------------------------------------------------------------
Pair    | 2.4242     | 2.4242     | 2.4242     |   0.0 | 40.22
Neigh   | 0.50996    | 0.50996    | 0.50996    |   0.0 |  8.46
Comm    | 0.036772   | 0.036772   | 0.036772   |   0.0 |  0.61
Output  | 0.3253     | 0.3253     | 0.3253     |   0.0 |  5.40
Modify  | 2.6037     | 2.6037     | 2.6037     |   0.0 | 43.20
Other   |            | 0.1276     |            |       |  2.12

Nlocal:    1297 ave 1297 max 1297 min
Histogram: 1 0 0 0 0 0 0 0 0 0
Nghost:    0 ave 0 max 0 min
Histogram: 1 0 0 0 0 0 0 0 0 0
Neighs:    7327 ave 7327 max 7327 min
Histogram: 1 0 0 0 0 0 0 0 0 0

Total # of neighbors = 7327
Ave neighs/atom = 5.64919
Neighbor list builds = 467
Dangerous builds = 0
unfix 		ins
run		900000
Per MPI rank memory allocation (min/avg/max) = 14.09 | 14.09 | 14.09 Mbytes
Time Atoms 
   3.4340133     1297 
   3.4425983     1297 
   3.4511834     1297 
   3.4597684     1296 
   3.4683534     1296 
   3.4769385     1296 
   3.4855235     1296 
   3.4941085     1294 
   3.5026936     1294 
   3.5112786     1294 
   3.5198636     1294 
   3.5284487     1292 
   3.5370337     1292 
   3.5456187     1291 
   3.5542038     1291 
   3.5627888     1291 
   3.5713738     1289 
   3.5799589     1289 
   3.5885439     1287 
   3.5971289     1287 
    3.605714     1287 
    3.614299     1286 
    3.622884     1285 
   3.6314691     1285 
   3.6400541     1285 
   3.6486391     1285 
   3.6572242     1285 
   3.6658092     1285 
   3.6743942     1285 
   3.6829793     1285 
   3.6915643     1285 
   3.7001493     1285 
   3.7087344     1285 
   3.7173194     1285 
   3.7259044     1284 
   3.7344895     1284 
   3.7430745     1284 
   3.7516595     1284 
   3.7602446     1284 
   3.7688296     1284 
   3.7774146     1284 
   3.7859997     1283 
   3.7945847     1283 
   3.8031697     1283 
   3.8117548     1283 
   3.8203398     1281 
   3.8289248     1281 
   3.8375099     1281 
   3.8460949     1280 
   3.8546799     1278 
    3.863265     1278 
     3.87185     1277 
    3.880435     1277 
   3.8890201     1276 
   3.8976051     1276 
   3.9061901     1275 
   3.9147752     1275 
   3.9233602     1275 
   3.9319452     1274 
   3.9405303     1274 
   3.9491153     1273 
   3.9577003     1273 
   3.9662854     1272 
   3.9748704     1270 
   3.9834554     1269 
   3.9920405     1269 
   4.0006255     1269 
   4.0092105     1268 
   4.0177956     1268 
   4.0263806     1267 
   4.0349656     1267 
   4.0435507     1267 
   4.0521357     1266 
   4.0607207     1266 
   4.0693058     1263 
   4.0778908     1263 
   4.0864758     1263 
   4.0950609     1262 
   4.1036459     1261 
   4.1122309     1261 
    4.120816     1261 
    4.129401     1261 
    4.137986     1261 
   4.1465711     1261 
   4.1551561     1260 
   4.1637411     1260 
   4.1723262     1260 
   4.1809112     1259 
   4.1894962     1259 
   4.1980813     1256 
   4.2066663     1256 
   4.2152513     1256 
   4.2238364     1256 
   4.2324214     1256 
   4.2410064     1255 
   4.2495915     1255 
   4.2581765     1255 
   4.2667615     1255 
   4.2753466     1255 
   4.2839316     1253 
   4.2925166     1253 
   4.3011017     1253 
   4.3096867     1252 
   4.3182717     1251 
   4.3268568     1251 
   4.3354418     1251 
   4.3440268     1251 
   4.3526119     1251 
   4.3611969     1251 
   4.3697819     1251 
    4.378367     1251 
    4.386952     1251 
    4.395537     1251 
   4.4041221     1251 
   4.4127071     1251 
   4.4212921     1251 
   4.4298772     1251 
   4.4384622     1251 
   4.4470472     1251 
   4.4556323     1249 
   4.4642173     1248 
   4.4728023     1248 
   4.4813874     1248 
   4.4899724     1248 
   4.4985574     1248 
   4.5071425     1247 
   4.5157275     1247 
   4.5243125     1247 
   4.5328976     1247 
   4.5414826     1246 
   4.5500676     1246 
   4.5586527     1246 
   4.5672377     1246 
   4.5758227     1245 
   4.5844078     1244 
   4.5929928     1243 
   4.6015778     1243 
   4.6101629     1243 
   4.6187479     1242 
   4.6273329     1241 
    4.635918     1239 
    4.644503     1239 
    4.653088     1239 
   4.6616731     1238 
   4.6702581     1237 
   4.6788431     1237 
   4.6874282     1237 
   4.6960132     1237 
   4.7045982     1236 
   4.7131833     1235 
   4.7217683     1235 
   4.7303533     1235 
   4.7389384     1235 
   4.7475234     1235 
   4.7561084     1235 
   4.7646935     1235 
   4.7732785     1235 
   4.7818635     1233 
   4.7904486     1233 
   4.7990336     1233 
   4.8076186     1233 
   4.8162037     1232 
   4.8247887     1232 
   4.8333737     1232 
   4.8419588     1232 
   4.8505438     1232 
   4.8591288     1231 
   4.8677139     1229 
   4.8762989     1229 
   4.8848839     1229 
    4.893469     1229 
    4.902054     1229 
    4.910639     1227 
   4.9192241     1227 
   4.9278091     1226 
   4.9363941     1226 
   4.9449792     1226 
   4.9535642     1226 
   4.9621492     1226 
   4.9707343     1226 
   4.9793193     1225 
   4.9879043     1225 
   4.9964894     1225 
   5.0050744     1224 
   5.0136594     1224 
   5.0222445     1224 
   5.0308295     1223 
   5.0394145     1223 
   5.0479996     1223 
   5.0565846     1223 
   5.0651696     1222 
   5.0737547     1222 
   5.0823397     1221 
   5.0909247     1221 
   5.0995098     1221 
   5.1080948     1221 
   5.1166798     1221 
   5.1252649     1221 
   5.1338499     1221 
   5.1424349     1221 
     5.15102     1220 
    5.159605     1220 
     5.16819     1220 
   5.1767751     1220 
   5.1853601     1220 
   5.1939451     1220 
   5.2025302     1220 
   5.2111152     1219 
   5.2197002     1218 
   5.2282853     1218 
   5.2368703     1218 
   5.2454553     1217 
   5.2540404     1216 
   5.2626254     1215 
   5.2712104     1215 
   5.2797955     1214 
   5.2883805     1214 
   5.2969655     1214 
   5.3055506     1214 
   5.3141356     1214 
   5.3227206     1213 
   5.3313057     1212 
   5.3398907     1212 
   5.3484757     1212 
   5.3570608     1212 
   5.3656458     1212 
   5.3742308     1211 
   5.3828159     1210 
   5.3914009     1210 
   5.3999859     1210 
    5.408571     1208 
    5.417156     1208 
    5.425741     1208 
   5.4343261     1208 
   5.4429111     1208 
   5.4514961     1207 
   5.4600812     1207 
   5.4686662     1207 
   5.4772512     1207 
   5.4858363     1205 
   5.4944213     1205 
   5.5030063     1205 
   5.5115914     1205 
   5.5201764     1205 
   5.5287614     1204 
   5.5373465     1204 
   5.5459315     1204 
   5.5545165     1204 
   5.5631015     1204 
   5.5716866     1204 
   5.5802716     1204 
   5.5888566     1202 
   5.5974417     1200 
   5.6060267     1199 
   5.6146117     1197 
   5.6231968     1197 
   5.6317818     1197 
   5.6403668     1196 
   5.6489519     1195 
   5.6575369     1195 
   5.6661219     1195 
    5.674707     1195 
    5.683292     1194 
    5.691877     1193 
   5.7004621     1192 
   5.7090471     1192 
   5.7176321     1191 
   5.7262172     1190 
   5.7348022     1190 
   5.7433872     1188 
   5.7519723     1188 
   5.7605573     1188 
   5.7691423     1187 
   5.7777274     1187 
   5.7863124     1187 
   5.7948974     1186 
   5.8034825     1186 
   5.8120675     1186 
   5.8206525     1185 
   5.8292376     1185 
   5.8378226     1183 
   5.8464076     1183 
   5.8549927     1183 
   5.8635777     1183 
   5.8721627     1183 
   5.8807478     1183 
   5.8893328     1183 
   5.8979178     1183 
   5.9065029     1183 
   5.9150879     1181 
   5.9236729     1180 
    5.932258     1178 
    5.940843     1178 
    5.949428     1178 
   5.9580131     1178 
   5.9665981     1178 
   5.9751831     1178 
   5.9837682     1178 
   5.9923532     1178 
   6.0009382     1178 
   6.0095233     1176 
   6.0181083     1176 
   6.0266933     1176 
   6.0352784     1176 
   6.0438634     1176 
   6.0524484     1175 
   6.0610335     1175 
   6.0696185     1175 
   6.0782035     1174 
   6.0867886     1174 
   6.0953736     1174 
   6.1039586     1174 
   6.1125437     1174 
   6.1211287     1173 
   6.1297137     1173 
   6.1382988     1173 
   6.1468838     1172 
   6.1554688     1172 
   6.1640539     1172 
   6.1726389     1171 
   6.1812239     1171 
    6.189809     1171 
    6.198394     1171 
    6.206979     1168 
   6.2155641     1168 
   6.2241491     1168 
   6.2327341     1168 
   6.2413192     1168 
   6.2499042     1167 
   6.2584892     1167 
   6.2670743     1167 
   6.2756593     1165 
   6.2842443     1165 
   6.2928294     1163 
   6.3014144     1163 
   6.3099994     1162 
   6.3185845     1162 
   6.3271695     1161 
   6.3357545     1161 
   6.3443396     1161 
   6.3529246     1161 
   6.3615096     1160 
   6.3700947     1160 
   6.3786797     1160 
   6.3872647     1160 
   6.3958498     1160 
   6.4044348     1160 
   6.4130198     1159 
   6.4216049     1159 
   6.4301899     1159 
   6.4387749     1159 
     6.44736     1159 
    6.455945     1159 
     6.46453     1159 
   6.4731151     1158 
   6.4817001     1158 
   6.4902851     1158 
   6.4988702     1158 
   6.5074552     1157 
   6.5160402     1157 
   6.5246253     1155 
   6.5332103     1153 
   6.5417953     1153 
   6.5503804     1152 
   6.5589654     1152 
   6.5675504     1151 
   6.5761355     1151 
   6.5847205     1151 
   6.5933055     1150 
   6.6018906     1150 
   6.6104756     1150 
   6.6190606     1150 
   6.6276457     1148 
   6.6362307     1146 
   6.6448157     1146 
   6.6534008     1145 
   6.6619858     1145 
   6.6705708     1145 
   6.6791559     1145 
   6.6877409     1144 
   6.6963259     1144 
    6.704911     1144 
    6.713496     1143 
    6.722081     1143 
   6.7306661     1142 
   6.7392511     1142 
   6.7478361     1142 
   6.7564212     1142 
   6.7650062     1141 
   6.7735912     1141 
   6.7821763     1141 
   6.7907613     1141 
   6.7993463     1141 
   6.8079314     1139 
   6.8165164     1139 
   6.8251014     1138 
   6.8336865     1138 
   6.8422715     1138 
   6.8508565     1138 
   6.8594416     1138 
   6.8680266     1136 
   6.8766116     1136 
   6.8851967     1136 
   6.8937817     1134 
   6.9023667     1134 
   6.9109518     1134 
   6.9195368     1133 
   6.9281218     1133 
   6.9367069     1133 
   6.9452919     1133 
   6.9538769     1133 
    6.962462     1130 
    6.971047     1130 
    6.979632     1130 
   6.9882171     1130 
   6.9968021     1130 
   7.0053871     1130 
   7.0139722     1130 
   7.0225572     1130 
   7.0311422     1130 
   7.0397273     1130 
   7.0483123     1130 
   7.0568973     1129 
   7.0654824     1129 
   7.0740674     1128 
   7.0826524     1128 
   7.0912375     1127 
   7.0998225     1125 
   7.1084075     1125 
   7.1169926     1124 
   7.1255776     1124 
   7.1341626     1124 
   7.1427477     1124 
   7.1513327     1124 
   7.1599177     1124 
   7.1685028     1124 
   7.1770878     1124 
   7.1856728     1124 
   7.1942579     1124 
   7.2028429     1122 
   7.2114279     1121 
    7.220013     1121 
    7.228598     1121 
    7.237183     1120 
   7.2457681     1120 
   7.2543531     1119 
   7.2629381     1119 
   7.2715232     1117 
   7.2801082     1117 
   7.2886932     1117 
   7.2972783     1117 
   7.3058633     1117 
   7.3144483     1116 
   7.3230334     1115 
   7.3316184     1115 
   7.3402034     1115 
   7.3487885     1115 
   7.3573735     1113 
   7.3659585     1111 
   7.3745436     1110 
   7.3831286     1108 
   7.3917136     1108 
   7.4002987     1107 
   7.4088837     1107 
   7.4174687     1107 
   7.4260538     1107 
   7.4346388     1107 
   7.4432238     1107 
   7.4518089     1106 
   7.4603939     1106 
   7.4689789     1106 
    7.477564     1105 
    7.486149     1105 
    7.494734     1105 
   7.5033191     1105 
   7.5119041     1105 
   7.5204891     1105 
   7.5290742     1104 
   7.5376592     1104 
   7.5462442     1104 
   7.5548293     1104 
   7.5634143     1104 
   7.5719993     1104 
   7.5805844     1103 
   7.5891694     1103 
   7.5977544     1103 
   7.6063395     1103 
   7.6149245     1101 
   7.6235095     1100 
   7.6320946     1100 
   7.6406796     1100 
   7.6492646     1099 
   7.6578497     1098 
   7.6664347     1098 
   7.6750197     1098 
   7.6836048     1098 
   7.6921898     1098 
   7.7007748     1097 
   7.7093599     1097 
   7.7179449     1097 
   7.7265299     1097 
    7.735115     1096 
      7.7437     1096 
    7.752285     1096 
   7.7608701     1096 
   7.7694551     1096 
   7.7780401     1095 
   7.7866252     1095 
   7.7952102     1091 
   7.8037952     1091 
   7.8123803     1090 
   7.8209653     1090 
   7.8295503     1090 
   7.8381354     1088 
   7.8467204     1086 
   7.8553054     1086 
   7.8638905     1086 
   7.8724755     1086 
   7.8810605     1085 
   7.8896456     1084 
   7.8982306     1083 
   7.9068156     1083 
   7.9154007     1083 
   7.9239857     1083 
   7.9325707     1082 
   7.9411558     1082 
   7.9497408     1082 
   7.9583258     1080 
   7.9669109     1080 
   7.9754959     1080 
   7.9840809     1080 
    7.992666     1080 
    8.001251     1079 
    8.009836     1079 
   8.0184211     1079 
   8.0270061     1079 
   8.0355911     1076 
   8.0441762     1076 
   8.0527612     1075 
   8.0613462     1075 
   8.0699313     1075 
   8.0785163     1074 
   8.0871013     1074 
   8.0956864     1074 
   8.1042714     1074 
   8.1128564     1074 
   8.1214415     1074 
   8.1300265     1074 
   8.1386115     1073 
   8.1471966     1073 
   8.1557816     1070 
   8.1643666     1068 
   8.1729517     1068 
   8.1815367     1068 
   8.1901217     1068 
   8.1987068     1068 
   8.2072918     1068 
   8.2158768     1068 
   8.2244619     1068 
   8.2330469     1068 
   8.2416319     1068 
    8.250217     1068 
    8.258802     1068 
    8.267387     1068 
   8.2759721     1068 
   8.2845571     1068 
   8.2931421     1066 
   8.3017272     1066 
   8.3103122     1066 
   8.3188972     1066 
   8.3274823     1065 
   8.3360673     1065 
   8.3446523     1064 
   8.3532374     1063 
   8.3618224     1062 
   8.3704074     1062 
   8.3789925     1062 
   8.3875775     1062 
   8.3961625     1062 
   8.4047476     1062 
   8.4133326     1062 
   8.4219176     1062 
   8.4305027     1061 
   8.4390877     1061 
   8.4476727     1061 
   8.4562578     1061 
   8.4648428     1060 
   8.4734278     1060 
   8.4820129     1059 
   8.4905979     1059 
   8.4991829     1059 
    8.507768     1059 
    8.516353     1059 
    8.524938     1058 
   8.5335231     1058 
   8.5421081     1057 
   8.5506931     1056 
   8.5592782     1056 
   8.5678632     1056 
   8.5764482     1056 
   8.5850333     1056 
   8.5936183     1056 
   8.6022033     1056 
   8.6107884     1055 
   8.6193734     1055 
   8.6279584     1055 
   8.6365435     1055 
   8.6451285     1055 
   8.6537135     1055 
   8.6622986     1055 
   8.6708836     1054 
   8.6794686     1054 
   8.6880537     1053 
   8.6966387     1053 
   8.7052237     1053 
   8.7138088     1052 
   8.7223938     1052 
   8.7309788     1052 
   8.7395639     1052 
   8.7481489     1050 
   8.7567339     1050 
    8.765319     1050 
    8.773904     1050 
    8.782489     1050 
   8.7910741     1049 
   8.7996591     1048 
   8.8082441     1048 
   8.8168292     1048 
   8.8254142     1047 
   8.8339992     1047 
   8.8425843     1046 
   8.8511693     1044 
   8.8597543     1044 
   8.8683394     1043 
   8.8769244     1042 
   8.8855094     1042 
   8.8940945     1042 
   8.9026795     1042 
   8.9112645     1042 
   8.9198496     1042 
   8.9284346     1041 
   8.9370196     1041 
   8.9456047     1041 
   8.9541897     1041 
   8.9627747     1040 
   8.9713598     1040 
   8.9799448     1040 
   8.9885298     1038 
   8.9971149     1037 
   9.0056999     1037 
   9.0142849     1037 
     9.02287     1037 
    9.031455     1036 
     9.04004     1036 
   9.0486251     1036 
   9.0572101     1036 
   9.0657951     1035 
   9.0743802     1035 
   9.0829652     1035 
   9.0915502     1035 
   9.1001353     1035 
   9.1087203     1034 
   9.1173053     1034 
   9.1258904     1033 
   9.1344754     1033 
   9.1430604     1032 
   9.1516455     1030 
   9.1602305     1030 
   9.1688155     1028 
   9.1774006     1028 
   9.1859856     1027 
   9.1945706     1027 
   9.2031557     1027 
   9.2117407     1027 
   9.2203257     1027 
   9.2289108     1026 
   9.2374958     1025 
   9.2460808     1025 
   9.2546658     1025 
   9.2632509     1024 
   9.2718359     1023 
   9.2804209     1023 
    9.289006     1023 
    9.297591     1023 
    9.306176     1023 
   9.3147611     1022 
   9.3233461     1022 
   9.3319311     1022 
   9.3405162     1021 
   9.3491012     1021 
   9.3576862     1021 
   9.3662713     1021 
   9.3748563     1021 
   9.3834413     1019 
   9.3920264     1018 
   9.4006114     1017 
   9.4091964     1017 
   9.4177815     1016 
   9.4263665     1015 
   9.4349515     1015 
   9.4435366     1015 
   9.4521216     1015 
   9.4607066     1014 
   9.4692917     1014 
   9.4778767     1014 
   9.4864617     1014 
   9.4950468     1013 
   9.5036318     1013 
   9.5122168     1012 
   9.5208019     1011 
   9.5293869     1011 
   9.5379719     1011 
    9.546557     1010 
    9.555142     1010 
    9.563727     1009 
   9.5723121     1009 
   9.5808971     1009 
   9.5894821     1009 
   9.5980672     1009 
   9.6066522     1009 
   9.6152372     1008 
   9.6238223     1007 
   9.6324073     1006 
   9.6409923     1006 
   9.6495774     1006 
   9.6581624     1006 
   9.6667474     1006 
   9.6753325     1005 
   9.6839175     1005 
   9.6925025     1005 
   9.7010876     1004 
   9.7096726     1004 
   9.7182576     1003 
   9.7268427     1003 
   9.7354277     1003 
   9.7440127     1003 
   9.7525978     1003 
   9.7611828     1003 
   9.7697678     1003 
   9.7783529     1003 
   9.7869379     1002 
   9.7955229     1000 
    9.804108      999 
    9.812693      999 
    9.821278      999 
   9.8298631      998 
   9.8384481      998 
   9.8470331      998 
   9.8556182      997 
   9.8642032      996 
   9.8727882      994 
   9.8813733      994 
   9.8899583      994 
   9.8985433      994 
   9.9071284      994 
   9.9157134      993 
   9.9242984      993 
   9.9328835      993 
   9.9414685      992 
   9.9500535      991 
   9.9586386      991 
   9.9672236      991 
   9.9758086      991 
   9.9843937      990 
   9.9929787      990 
   10.001564      990 
   10.010149      990 
   10.018734      990 
   10.027319      990 
   10.035904      988 
   10.044489      988 
   10.053074      988 
   10.061659      988 
   10.070244      986 
   10.078829      986 
   10.087414      986 
   10.095999      985 
   10.104584      985 
   10.113169      985 
   10.121754      984 
   10.130339      984 
   10.138924      983 
   10.147509      981 
   10.156094      981 
   10.164679      981 
   10.173264      981 
   10.181849      981 
   10.190434      981 
    10.19902      981 
   10.207605      981 
    10.21619      981 
   10.224775      981 
    10.23336      980 
   10.241945      978 
    10.25053      978 
   10.259115      977 
     10.2677      977 
   10.276285      977 
    10.28487      977 
   10.293455      977 
    10.30204      977 
   10.310625      977 
    10.31921      975 
   10.327795      975 
    10.33638      974 
   10.344965      974 
    10.35355      974 
   10.362135      974 
    10.37072      972 
   10.379305      971 
    10.38789      971 
   10.396475      971 
    10.40506      970 
   10.413645      970 
    10.42223      970 
   10.430815      968 
     10.4394      968 
   10.447985      968 
   10.456571      968 
   10.465156      968 
   10.473741      968 
   10.482326      968 
   10.490911      967 
   10.499496      967 
   10.508081      967 
   10.516666      966 
   10.525251      966 
   10.533836      966 
   10.542421      966 
   10.551006      966 
   10.559591      965 
   10.568176      964 
   10.576761      963 
   10.585346      963 
   10.593931      963 
   10.602516      963 
   10.611101      963 
   10.619686      963 
   10.628271      963 
   10.636856      963 
   10.645441      962 
   10.654026      962 
   10.662611      962 
   10.671196      961 
   10.679781      961 
   10.688366      959 
   10.696951      959 
   10.705536      959 
   10.714122      959 
   10.722707      959 
   10.731292      959 
   10.739877      959 
   10.748462      959 
   10.757047      958 
   10.765632      957 
   10.774217      957 
   10.782802      957 
   10.791387      956 
   10.799972      956 
   10.808557      956 
   10.817142      955 
   10.825727      955 
   10.834312      955 
   10.842897      953 
   10.851482      953 
   10.860067      953 
   10.868652      952 
   10.877237      951 
   10.885822      951 
   10.894407      951 
   10.902992      950 
   10.911577      949 
   10.920162      949 
   10.928747      949 
   10.937332      949 
   10.945917      948 
   10.954502      947 
   10.963087      947 
   10.971673      947 
   10.980258      946 
   10.988843      946 
   10.997428      946 
   11.006013      945 
   11.014598      945 
   11.023183      944 
   11.031768      944 
   11.040353      944 
   11.048938      943 
   11.057523      943 
   11.066108      943 
   11.074693      941 
   11.083278      941 
   11.091863      941 
   11.100448      941 
   11.109033      941 
   11.117618      941 
   11.126203      941 
   11.134788      941 
   11.143373      940 
   11.151958      940 
   11.160543      939 
   11.169128      939 
   11.177713      938 
   11.186298      938 
   11.194883      937 
   11.203468      936 
   11.212053      936 
   11.220638      934 
   11.229223      934 
   11.237809      934 
   11.246394      934 
   11.254979      934 
   11.263564      933 
   11.272149      933 
   11.280734      931 
   11.289319      929 
   11.297904      929 
   11.306489      927 
   11.315074      927 
   11.323659      926 
   11.332244      926 
   11.340829      926 
   11.349414      926 
   11.357999      926 
   11.366584      926 
   11.375169      926 
   11.383754      925 
   11.392339      925 
   11.400924      924 
   11.409509      924 
   11.418094      924 
   11.426679      923 
   11.435264      923 
   11.443849      923 
   11.452434      923 
   11.461019      922 
   11.469604      922 
   11.478189      921 
   11.486774      921 
    11.49536      921 
   11.503945      921 
    11.51253      920 
   11.521115      919 
     11.5297      918 
   11.538285      918 
    11.54687      918 
   11.555455      917 
    11.56404      915 
   11.572625      914 
    11.58121      914 
   11.589795      914 
    11.59838      914 
   11.606965      914 
    11.61555      913 
   11.624135      913 
    11.63272      913 
   11.641305      912 
    11.64989      912 
   11.658475      912 
    11.66706      912 
   11.675645      910 
    11.68423      910 
   11.692815      910 
     11.7014      910 
   11.709985      909 
    11.71857      908 
   11.727155      908 
    11.73574      908 
   11.744325      908 
   11.752911      907 
   11.761496      906 
   11.770081      905 
   11.778666      905 
   11.787251      903 
   11.795836      903 
   11.804421      903 
   11.813006      903 
   11.821591      903 
   11.830176      903 
   11.838761      902 
   11.847346      900 
   11.855931      900 
   11.864516      900 
   11.873101      900 
   11.881686      900 
   11.890271      900 
   11.898856      900 
   11.907441      900 
   11.916026      900 
   11.924611      900 
   11.933196      900 
   11.941781      899 
   11.950366      898 
   11.958951      898 
   11.967536      898 
   11.976121      898 
   11.984706      898 
   11.993291      898 
   12.001876      896 
   12.010462      896 
   12.019047      896 
   12.027632      896 
   12.036217      896 
   12.044802      896 
   12.053387      896 
   12.061972      896 
   12.070557      896 
   12.079142      895 
   12.087727      894 
   12.096312      893 
   12.104897      893 
   12.113482      893 
   12.122067      892 
   12.130652      892 
   12.139237      892 
   12.147822      892 
   12.156407      889 
   12.164992      888 
   12.173577      888 
   12.182162      888 
   12.190747      888 
   12.199332      888 
   12.207917      888 
   12.216502      888 
   12.225087      888 
   12.233672      887 
   12.242257      887 
   12.250842      887 
   12.259427      887 
   12.268013      886 
   12.276598      885 
   12.285183      885 
   12.293768      885 
   12.302353      885 
   12.310938      884 
   12.319523      884 
   12.328108      884 
   12.336693      884 
   12.345278      884 
   12.353863      884 
   12.362448      883 
   12.371033      883 
   12.379618      883 
   12.388203      883 
   12.396788      882 
   12.405373      882 
   12.413958      882 
   12.422543      882 
   12.431128      882 
   12.439713      882 
   12.448298      882 
   12.456883      881 
   12.465468      881 
   12.474053      880 
   12.482638      880 
   12.491223      878 
   12.499808      877 
   12.508393      877 
   12.516978      877 
   12.525564      877 
   12.534149      877 
   12.542734      877 
   12.551319      876 
   12.559904      876 
   12.568489      875 
   12.577074      875 
   12.585659      874 
   12.594244      873 
   12.602829      873 
   12.611414      872 
   12.619999      870 
   12.628584      870 
   12.637169      869 
   12.645754      869 
   12.654339      868 
   12.662924      868 
   12.671509      868 
   12.680094      868 
   12.688679      868 
   12.697264      867 
   12.705849      866 
   12.714434      864 
   12.723019      864 
   12.731604      863 
   12.740189      863 
   12.748774      862 
   12.757359      862 
   12.765944      862 
   12.774529      861 
   12.783115      861 
     12.7917      861 
   12.800285      861 
    12.80887      861 
   12.817455      860 
    12.82604      860 
   12.834625      859 
    12.84321      859 
   12.851795      859 
    12.86038      858 
   12.868965      858 
    12.87755      858 
   12.886135      858 
    12.89472      858 
   12.903305      857 
    12.91189      857 
   12.920475      857 
    12.92906      857 
   12.937645      857 
    12.94623      856 
   12.954815      855 
     12.9634      855 
   12.971985      855 
    12.98057      855 
   12.989155      855 
    12.99774      854 
   13.006325      854 
    13.01491      854 
   13.023495      854 
    13.03208      853 
   13.040666      853 
   13.049251      853 
   13.057836      853 
   13.066421      853 
   13.075006      853 
   13.083591      853 
   13.092176      850 
   13.100761      850 
   13.109346      850 
   13.117931      850 
   13.126516      850 
   13.135101      850 
   13.143686      849 
   13.152271      849 
   13.160856      849 
   13.169441      846 
   13.178026      844 
   13.186611      844 
   13.195196      844 
   13.203781      844 
   13.212366      843 
   13.220951      842 
   13.229536      842 
   13.238121      842 
   13.246706      842 
   13.255291      842 
   13.263876      841 
   13.272461      841 
   13.281046      841 
   13.289631      841 
   13.298217      840 
   13.306802      840 
   13.315387      840 
   13.323972      840 
   13.332557      840 
   13.341142      840 
   13.349727      840 
   13.358312      840 
   13.366897      839 
   13.375482      839 
   13.384067      838 
   13.392652      838 
   13.401237      838 
   13.409822      837 
   13.418407      837 
   13.426992      837 
   13.435577      837 
   13.444162      836 
   13.452747      836 
   13.461332      836 
   13.469917      834 
   13.478502      834 
   13.487087      833 
   13.495672      833 
   13.504257      833 
   13.512842      833 
   13.521427      833 
   13.530012      833 
   13.538597      832 
   13.547182      832 
   13.555768      831 
   13.564353      831 
   13.572938      831 
   13.581523      830 
   13.590108      830 
   13.598693      830 
   13.607278      828 
   13.615863      828 
   13.624448      828 
   13.633033      828 
   13.641618      828 
   13.650203      826 
   13.658788      826 
   13.667373      826 
   13.675958      826 
   13.684543      826 
   13.693128      826 
   13.701713      826 
   13.710298      826 
   13.718883      826 
   13.727468      825 
   13.736053      823 
   13.744638      823 
   13.753223      823 
   13.761808      823 
   13.770393      822 
   13.778978      822 
   13.787563      821 
   13.796148      821 
   13.804733      820 
   13.813319      820 
   13.821904      820 
   13.830489      820 
   13.839074      820 
   13.847659      819 
   13.856244      819 
   13.864829      819 
   13.873414      819 
   13.881999      819 
   13.890584      819 
   13.899169      818 
   13.907754      817 
   13.916339      817 
   13.924924      817 
   13.933509      817 
   13.942094      817 
   13.950679      816 
   13.959264      815 
   13.967849      814 
   13.976434      814 
   13.985019      813 
   13.993604      812 
   14.002189      811 
   14.010774      811 
   14.019359      811 
   14.027944      810 
   14.036529      810 
   14.045114      810 
   14.053699      810 
   14.062284      810 
    14.07087      810 
   14.079455      809 
    14.08804      809 
   14.096625      808 
    14.10521      807 
   14.113795      806 
    14.12238      804 
   14.130965      804 
    14.13955      804 
   14.148135      804 
    14.15672      804 
   14.165305      804 
    14.17389      804 
   14.182475      803 
    14.19106      803 
   14.199645      800 
    14.20823      800 
   14.216815      800 
     14.2254      800 
   14.233985      799 
    14.24257      798 
   14.251155      798 
    14.25974      798 
   14.268325      798 
    14.27691      797 
   14.285495      797 
    14.29408      797 
   14.302665      797 
    14.31125      796 
   14.319835      796 
   14.328421      796 
   14.337006      796 
   14.345591      796 
   14.354176      796 
   14.362761      796 
   14.371346      795 
   14.379931      794 
   14.388516      793 
   14.397101      793 
   14.405686      793 
   14.414271      792 
   14.422856      792 
   14.431441      791 
   14.440026      791 
   14.448611      791 
   14.457196      791 
   14.465781      790 
   14.474366      788 
   14.482951      788 
   14.491536      787 
   14.500121      785 
   14.508706      785 
   14.517291      785 
   14.525876      784 
   14.534461      784 
   14.543046      783 
   14.551631      783 
   14.560216      783 
   14.568801      783 
   14.577386      783 
   14.585972      783 
   14.594557      783 
   14.603142      783 
   14.611727      783 
   14.620312      783 
   14.628897      783 
   14.637482      782 
   14.646067      782 
   14.654652      782 
   14.663237      782 
   14.671822      781 
   14.680407      781 
   14.688992      781 
   14.697577      779 
   14.706162      779 
   14.714747      777 
   14.723332      777 
   14.731917      777 
   14.740502      777 
   14.749087      777 
   14.757672      777 
   14.766257      777 
   14.774842      776 
   14.783427      776 
   14.792012      776 
   14.800597      776 
   14.809182      774 
   14.817767      774 
   14.826352      774 
   14.834937      774 
   14.843522      774 
   14.852108      772 
   14.860693      772 
   14.869278      772 
   14.877863      771 
   14.886448      771 
   14.895033      771 
   14.903618      771 
   14.912203      771 
   14.920788      771 
   14.929373      771 
   14.937958      771 
   14.946543      770 
   14.955128      770 
   14.963713      770 
   14.972298      768 
   14.980883      768 
   14.989468      767 
   14.998053      766 
   15.006638      766 
   15.015223      766 
   15.023808      766 
   15.032393      765 
   15.040978      765 
   15.049563      765 
   15.058148      765 
   15.066733      764 
   15.075318      763 
   15.083903      763 
   15.092488      763 
   15.101073      763 
   15.109659      763 
   15.118244      763 
   15.126829      762 
   15.135414      762 
   15.143999      761 
   15.152584      760 
   15.161169      760 
   15.169754      760 
   15.178339      760 
   15.186924      760 
   15.195509      760 
   15.204094      759 
   15.212679      759 
   15.221264      759 
   15.229849      759 
   15.238434      758 
   15.247019      758 
   15.255604      758 
   15.264189      758 
   15.272774      756 
   15.281359      756 
   15.289944      756 
   15.298529      756 
   15.307114      755 
   15.315699      754 
   15.324284      754 
   15.332869      754 
   15.341454      754 
   15.350039      753 
   15.358624      753 
    15.36721      753 
   15.375795      752 
    15.38438      752 
   15.392965      752 
    15.40155      752 
   15.410135      751 
    15.41872      751 
   15.427305      750 
    15.43589      750 
   15.444475      749 
    15.45306      749 
   15.461645      749 
    15.47023      747 
   15.478815      746 
     15.4874      744 
   15.495985      744 
    15.50457      744 
   15.513155      743 
    15.52174      743 
   15.530325      743 
    15.53891      743 
   15.547495      741 
    15.55608      740 
   15.564665      739 
    15.57325      739 
   15.581835      739 
    15.59042      739 
   15.599005      738 
    15.60759      738 
   15.616175      738 
   15.624761      737 
   15.633346      737 
   15.641931      737 
   15.650516      737 
   15.659101      737 
   15.667686      735 
   15.676271      735 
   15.684856      735 
   15.693441      735 
   15.702026      735 
   15.710611      734 
   15.719196      733 
   15.727781      733 
   15.736366      733 
   15.744951      733 
   15.753536      733 
   15.762121      733 
   15.770706      733 
   15.779291      731 
   15.787876      731 
   15.796461      731 
   15.805046      731 
   15.813631      731 
   15.822216      731 
   15.830801      729 
   15.839386      729 
   15.847971      729 
   15.856556      728 
   15.865141      728 
   15.873726      727 
   15.882312      727 
   15.890897      727 
   15.899482      727 
   15.908067      727 
   15.916652      727 
   15.925237      727 
   15.933822      727 
   15.942407      727 
   15.950992      726 
   15.959577      725 
   15.968162      725 
   15.976747      725 
   15.985332      725 
   15.993917      724 
   16.002502      723 
   16.011087      723 
   16.019672      722 
   16.028257      722 
   16.036842      722 
   16.045427      722 
   16.054012      721 
   16.062597      721 
   16.071182      721 
   16.079767      721 
   16.088352      720 
   16.096937      720 
   16.105522      719 
   16.114107      719 
   16.122692      719 
   16.131277      719 
   16.139863      717 
   16.148448      717 
   16.157033      717 
   16.165618      717 
   16.174203      715 
   16.182788      715 
   16.191373      715 
   16.199958      715 
   16.208543      715 
   16.217128      715 
   16.225713      715 
   16.234298      715 
   16.242883      712 
   16.251468      712 
   16.260053      711 
   16.268638      711 
   16.277223      711 
   16.285808      709 
   16.294393      709 
   16.302978      709 
   16.311563      709 
   16.320148      709 
   16.328733      708 
   16.337318      707 
   16.345903      707 
   16.354488      707 
   16.363073      706 
   16.371658      706 
   16.380243      706 
   16.388828      706 
   16.397414      706 
   16.405999      706 
   16.414584      706 
   16.423169      706 
   16.431754      706 
   16.440339      706 
   16.448924      703 
   16.457509      702 
   16.466094      701 
   16.474679      701 
   16.483264      701 
   16.491849      701 
   16.500434      701 
   16.509019      700 
   16.517604      700 
   16.526189      700 
   16.534774      700 
   16.543359      699 
   16.551944      699 
   16.560529      699 
   16.569114      698 
   16.577699      697 
   16.586284      697 
   16.594869      697 
   16.603454      697 
   16.612039      696 
   16.620624      696 
   16.629209      696 
   16.637794      695 
   16.646379      694 
   16.654965      693 
    16.66355      692 
   16.672135      692 
    16.68072      691 
   16.689305      691 
    16.69789      690 
   16.706475      690 
    16.71506      690 
   16.723645      690 
    16.73223      690 
   16.740815      688 
     16.7494      688 
   16.757985      688 
    16.76657      688 
   16.775155      688 
    16.78374      688 
   16.792325      688 
    16.80091      688 
   16.809495      687 
    16.81808      687 
   16.826665      687 
    16.83525      686 
   16.843835      684 
    16.85242      683 
   16.861005      683 
    16.86959      683 
   16.878175      682 
    16.88676      682 
   16.895345      682 
    16.90393      682 
   16.912516      680 
   16.921101      680 
   16.929686      680 
   16.938271      678 
   16.946856      678 
   16.955441      678 
   16.964026      678 
   16.972611      678 
   16.981196      678 
   16.989781      678 
   16.998366      677 
   17.006951      675 
   17.015536      675 
   17.024121      675 
   17.032706      675 
   17.041291      675 
   17.049876      674 
   17.058461      674 
   17.067046      674 
   17.075631      674 
   17.084216      673 
   17.092801      673 
   17.101386      673 
   17.109971      673 
   17.118556      673 
   17.127141      673 
   17.135726      673 
   17.144311      672 
   17.152896      671 
   17.161481      671 
   17.170067      671 
   17.178652      671 
   17.187237      670 
   17.195822      669 
   17.204407      668 
   17.212992      668 
   17.221577      668 
   17.230162      668 
   17.238747      667 
   17.247332      667 
   17.255917      667 
   17.264502      667 
   17.273087      666 
   17.281672      666 
   17.290257      666 
   17.298842      666 
   17.307427      665 
   17.316012      665 
   17.324597      665 
   17.333182      665 
   17.341767      664 
   17.350352      663 
   17.358937      663 
   17.367522      663 
   17.376107      663 
   17.384692      663 
   17.393277      662 
   17.401862      662 
   17.410447      662 
   17.419032      662 
   17.427618      662 
   17.436203      662 
   17.444788      662 
   17.453373      660 
   17.461958      658 
   17.470543      658 
   17.479128      658 
   17.487713      658 
   17.496298      656 
   17.504883      655 
   17.513468      655 
   17.522053      655 
   17.530638      654 
   17.539223      654 
   17.547808      654 
   17.556393      653 
   17.564978      653 
   17.573563      651 
   17.582148      650 
   17.590733      649 
   17.599318      649 
   17.607903      649 
   17.616488      649 
   17.625073      649 
   17.633658      649 
   17.642243      649 
   17.650828      649 
   17.659413      649 
   17.667998      648 
   17.676583      648 
   17.685169      648 
   17.693754      648 
   17.702339      648 
   17.710924      648 
   17.719509      648 
   17.728094      647 
   17.736679      647 
   17.745264      647 
   17.753849      647 
   17.762434      647 
   17.771019      646 
   17.779604      646 
   17.788189      646 
   17.796774      646 
   17.805359      646 
   17.813944      645 
   17.822529      644 
   17.831114      644 
   17.839699      644 
   17.848284      644 
   17.856869      644 
   17.865454      644 
   17.874039      644 
   17.882624      644 
   17.891209      643 
   17.899794      642 
   17.908379      642 
   17.916964      642 
   17.925549      642 
   17.934134      642 
    17.94272      642 
   17.951305      641 
    17.95989      640 
   17.968475      639 
    17.97706      639 
   17.985645      639 
    17.99423      639 
   18.002815      639 
     18.0114      639 
   18.019985      639 
    18.02857      639 
   18.037155      639 
    18.04574      637 
   18.054325      637 
    18.06291      637 
   18.071495      636 
    18.08008      636 
   18.088665      635 
    18.09725      635 
   18.105835      635 
    18.11442      634 
   18.123005      634 
    18.13159      633 
   18.140175      633 
    18.14876      632 
   18.157345      631 
    18.16593      631 
   18.174515      631 
     18.1831      630 
   18.191685      629 
   18.200271      629 
   18.208856      628 
   18.217441      628 
   18.226026      627 
   18.234611      627 
   18.243196      627 
   18.251781      627 
   18.260366      627 
   18.268951      627 
   18.277536      626 
   18.286121      626 
   18.294706      626 
   18.303291      625 
   18.311876      625 
   18.320461      624 
   18.329046      624 
   18.337631      623 
   18.346216      623 
   18.354801      622 
   18.363386      622 
   18.371971      622 
   18.380556      622 
   18.389141      622 
   18.397726      620 
   18.406311      620 
   18.414896      620 
   18.423481      619 
   18.432066      618 
   18.440651      618 
   18.449236      618 
   18.457822      618 
   18.466407      616 
   18.474992      616 
   18.483577      616 
   18.492162      615 
   18.500747      615 
   18.509332      615 
   18.517917      613 
   18.526502      613 
   18.535087      612 
   18.543672      612 
   18.552257      612 
   18.560842      611 
   18.569427      611 
   18.578012      611 
   18.586597      610 
   18.595182      610 
   18.603767      610 
   18.612352      610 
   18.620937      610 
   18.629522      610 
   18.638107      609 
   18.646692      609 
   18.655277      609 
   18.663862      608 
   18.672447      608 
   18.681032      608 
   18.689617      608 
   18.698202      608 
   18.706787      607 
   18.715372      606 
   18.723958      606 
   18.732543      606 
   18.741128      606 
   18.749713      606 
   18.758298      606 
   18.766883      605 
   18.775468      605 
   18.784053      605 
   18.792638      605 
   18.801223      604 
   18.809808      604 
   18.818393      603 
   18.826978      602 
   18.835563      602 
   18.844148      601 
   18.852733      601 
   18.861318      601 
   18.869903      601 
   18.878488      601 
   18.887073      599 
   18.895658      599 
   18.904243      599 
   18.912828      598 
   18.921413      597 
   18.929998      597 
   18.938583      597 
   18.947168      596 
   18.955753      596 
   18.964338      595 
   18.972923      595 
   18.981509      594 
   18.990094      593 
   18.998679      592 
   19.007264      592 
   19.015849      591 
   19.024434      591 
   19.033019      591 
   19.041604      591 
   19.050189      591 
   19.058774      589 
   19.067359      589 
   19.075944      588 
   19.084529      588 
   19.093114      588 
   19.101699      588 
   19.110284      588 
   19.118869      588 
   19.127454      588 
   19.136039      588 
   19.144624      587 
   19.153209      587 
   19.161794      586 
   19.170379      586 
   19.178964      586 
   19.187549      586 
   19.196134      584 
   19.204719      584 
   19.213304      584 
   19.221889      584 
   19.230474      583 
    19.23906      582 
   19.247645      582 
    19.25623      582 
   19.264815      582 
     19.2734      581 
   19.281985      580 
    19.29057      580 
   19.299155      580 
    19.30774      580 
   19.316325      579 
    19.32491      579 
   19.333495      579 
    19.34208      579 
   19.350665      578 
    19.35925      578 
   19.367835      578 
    19.37642      577 
   19.385005      577 
    19.39359      577 
   19.402175      577 
    19.41076      576 
   19.419345      575 
    19.42793      575 
   19.436515      575 
     19.4451      575 
   19.453685      575 
    19.46227      573 
   19.470855      572 
    19.47944      572 
   19.488025      572 
   19.496611      571 
   19.505196      571 
   19.513781      571 
   19.522366      571 
   19.530951      571 
   19.539536      571 
   19.548121      571 
   19.556706      570 
   19.565291      569 
   19.573876      568 
   19.582461      568 
   19.591046      568 
   19.599631      567 
   19.608216      567 
   19.616801      567 
   19.625386      567 
   19.633971      567 
   19.642556      566 
   19.651141      566 
   19.659726      566 
   19.668311      566 
   19.676896      566 
   19.685481      565 
   19.694066      565 
   19.702651      565 
   19.711236      565 
   19.719821      564 
   19.728406      564 
   19.736991      564 
   19.745576      564 
   19.754162      564 
   19.762747      564 
   19.771332      563 
   19.779917      561 
   19.788502      561 
   19.797087      561 
   19.805672      561 
   19.814257      558 
   19.822842      558 
   19.831427      556 
   19.840012      556 
   19.848597      555 
   19.857182      555 
   19.865767      555 
   19.874352      555 
   19.882937      554 
   19.891522      554 
   19.900107      554 
   19.908692      553 
   19.917277      552 
   19.925862      551 
   19.934447      550 
   19.943032      550 
   19.951617      550 
   19.960202      550 
   19.968787      550 
   19.977372      550 
   19.985957      550 
   19.994542      550 
   20.003127      550 
   20.011713      550 
   20.020298      550 
   20.028883      549 
   20.037468      549 
   20.046053      549 
   20.054638      549 
   20.063223      548 
   20.071808      548 
   20.080393      547 
   20.088978      547 
   20.097563      546 
   20.106148      545 
   20.114733      545 
   20.123318      545 
   20.131903      545 
   20.140488      545 
   20.149073      544 
   20.157658      542 
   20.166243      542 
   20.174828      542 
   20.183413      542 
   20.191998      540 
   20.200583      540 
   20.209168      540 
   20.217753      539 
   20.226338      539 
   20.234923      539 
   20.243508      539 
   20.252093      539 
   20.260678      539 
   20.269264      538 
   20.277849      538 
   20.286434      538 
   20.295019      538 
   20.303604      537 
   20.312189      537 
   20.320774      537 
   20.329359      537 
   20.337944      537 
   20.346529      536 
   20.355114      536 
   20.363699      536 
   20.372284      536 
   20.380869      534 
   20.389454      534 
   20.398039      534 
   20.406624      534 
   20.415209      534 
   20.423794      533 
   20.432379      532 
   20.440964      531 
   20.449549      531 
   20.458134      531 
   20.466719      531 
   20.475304      531 
   20.483889      531 
   20.492474      531 
   20.501059      531 
   20.509644      530 
   20.518229      530 
   20.526815      530 
     20.5354      530 
   20.543985      528 
    20.55257      528 
   20.561155      528 
    20.56974      528 
   20.578325      527 
    20.58691      526 
   20.595495      526 
    20.60408      526 
   20.612665      526 
    20.62125      525 
   20.629835      525 
    20.63842      524 
   20.647005      524 
    20.65559      523 
   20.664175      523 
    20.67276      523 
   20.681345      522 
    20.68993      522 
   20.698515      522 
     20.7071      522 
   20.715685      522 
    20.72427      521 
   20.732855      521 
    20.74144      521 
   20.750025      521 
    20.75861      521 
   20.767195      521 
    20.77578      521 
   20.784366      521 
   20.792951      520 
   20.801536      518 
   20.810121      518 
   20.818706      518 
   20.827291      518 
   20.835876      517 
   20.844461      517 
   20.853046      517 
   20.861631      516 
   20.870216      516 
   20.878801      515 
   20.887386      515 
   20.895971      515 
   20.904556      513 
   20.913141      513 
   20.921726      513 
   20.930311      513 
   20.938896      511 
   20.947481      510 
   20.956066      510 
   20.964651      510 
   20.973236      510 
   20.981821      509 
   20.990406      508 
   20.998991      508 
   21.007576      508 
   21.016161      508 
   21.024746      508 
   21.033331      507 
   21.041917      507 
   21.050502      507 
   21.059087      506 
   21.067672      506 
   21.076257      506 
   21.084842      506 
   21.093427      506 
   21.102012      506 
   21.110597      506 
   21.119182      506 
   21.127767      505 
   21.136352      505 
   21.144937      504 
   21.153522      504 
   21.162107      504 
   21.170692      504 
   21.179277      502 
   21.187862      501 
   21.196447      501 
   21.205032      501 
   21.213617      501 
   21.222202      501 
   21.230787      501 
   21.239372      500 
   21.247957      500 
   21.256542      500 
   21.265127      500 
   21.273712      499 
   21.282297      499 
   21.290882      497 
   21.299468      496 
   21.308053      496 
   21.316638      495 
   21.325223      495 
   21.333808      494 
   21.342393      494 
   21.350978      494 
   21.359563      494 
   21.368148      494 
   21.376733      493 
   21.385318      493 
   21.393903      493 
   21.402488      493 
   21.411073      492 
   21.419658      491 
   21.428243      491 
   21.436828      491 
   21.445413      491 
   21.453998      491 
   21.462583      490 
   21.471168      490 
   21.479753      489 
   21.488338      489 
   21.496923      489 
   21.505508      489 
   21.514093      489 
   21.522678      489 
   21.531263      489 
   21.539848      489 
   21.548433      489 
   21.557019      489 
   21.565604      489 
   21.574189      489 
   21.582774      488 
   21.591359      488 
   21.599944      487 
   21.608529      487 
   21.617114      487 
   21.625699      486 
   21.634284      486 
   21.642869      485 
   21.651454      485 
   21.660039      484 
   21.668624      484 
   21.677209      483 
   21.685794      482 
   21.694379      482 
   21.702964      482 
   21.711549      481 
   21.720134      481 
   21.728719      479 
   21.737304      479 
   21.745889      479 
   21.754474      478 
   21.763059      476 
   21.771644      476 
   21.780229      475 
   21.788814      475 
   21.797399      475 
   21.805984      475 
    21.81457      475 
   21.823155      475 
    21.83174      475 
   21.840325      475 
    21.84891      475 
   21.857495      475 
    21.86608      475 
   21.874665      474 
    21.88325      474 
   21.891835      474 
    21.90042      474 
   21.909005      474 
    21.91759      473 
   21.926175      473 
    21.93476      473 
   21.943345      472 
    21.95193      472 
   21.960515      472 
     21.9691      472 
   21.977685      472 
    21.98627      471 
   21.994855      470 
    22.00344      470 
   22.012025      470 
    22.02061      470 
   22.029195      470 
    22.03778      470 
   22.046365      470 
    22.05495      470 
   22.063535      470 
   22.072121      470 
   22.080706      470 
   22.089291      470 
   22.097876      467 
   22.106461      466 
   22.115046      466 
   22.123631      466 
   22.132216      466 
   22.140801      466 
   22.149386      466 
   22.157971      466 
   22.166556      466 
   22.175141      465 
   22.183726      465 
   22.192311      465 
   22.200896      464 
   22.209481      463 
   22.218066      463 
   22.226651      461 
   22.235236      461 
   22.243821      461 
   22.252406      461 
   22.260991      461 
   22.269576      461 
   22.278161      461 
   22.286746      460 
   22.295331      458 
   22.303916      457 
   22.312501      457 
   22.321086      457 
   22.329671      457 
   22.338257      457 
   22.346842      457 
   22.355427      457 
   22.364012      457 
   22.372597      457 
   22.381182      456 
   22.389767      455 
   22.398352      455 
   22.406937      455 
   22.415522      454 
   22.424107      454 
   22.432692      454 
   22.441277      454 
   22.449862      454 
   22.458447      454 
   22.467032      453 
   22.475617      453 
   22.484202      453 
   22.492787      453 
   22.501372      453 
   22.509957      453 
   22.518542      453 
   22.527127      453 
   22.535712      453 
   22.544297      453 
   22.552882      453 
   22.561467      452 
   22.570052      452 
   22.578637      452 
   22.587222      452 
   22.595808      451 
   22.604393      451 
   22.612978      451 
   22.621563      451 
   22.630148      450 
   22.638733      450 
   22.647318      449 
   22.655903      448 
   22.664488      448 
   22.673073      447 
   22.681658      447 
   22.690243      447 
   22.698828      447 
   22.707413      447 
   22.715998      447 
   22.724583      446 
   22.733168      445 
   22.741753      445 
   22.750338      445 
   22.758923      445 
   22.767508      444 
   22.776093      444 
   22.784678      443 
   22.793263      442 
   22.801848      442 
   22.810433      440 
   22.819018      440 
   22.827603      440 
   22.836188      439 
   22.844773      439 
   22.853359      439 
   22.861944      438 
   22.870529      437 
   22.879114      437 
   22.887699      437 
   22.896284      437 
   22.904869      435 
   22.913454      435 
   22.922039      435 
   22.930624      435 
   22.939209      433 
   22.947794      433 
   22.956379      433 
   22.964964      431 
   22.973549      431 
   22.982134      431 
   22.990719      431 
   22.999304      431 
   23.007889      430 
   23.016474      430 
   23.025059      429 
   23.033644      428 
   23.042229      428 
   23.050814      427 
   23.059399      427 
   23.067984      427 
   23.076569      427 
   23.085154      425 
   23.093739      425 
   23.102324      425 
    23.11091      424 
   23.119495      424 
    23.12808      424 
   23.136665      424 
    23.14525      424 
   23.153835      424 
    23.16242      424 
   23.171005      424 
    23.17959      424 
   23.188175      424 
    23.19676      423 
   23.205345      421 
    23.21393      421 
   23.222515      421 
     23.2311      421 
   23.239685      420 
    23.24827      420 
   23.256855      417 
    23.26544      417 
   23.274025      417 
    23.28261      417 
   23.291195      417 
    23.29978      416 
   23.308365      414 
    23.31695      414 
   23.325535      414 
    23.33412      414 
   23.342705      414 
    23.35129      413 
   23.359875      412 
   23.368461      412 
   23.377046      412 
   23.385631      412 
   23.394216      412 
   23.402801      412 
   23.411386      412 
   23.419971      412 
   23.428556      412 
   23.437141      412 
   23.445726      412 
   23.454311      411 
   23.462896      410 
   23.471481      410 
   23.480066      410 
   23.488651      410 
   23.497236      410 
   23.505821      409 
   23.514406      409 
   23.522991      409 
   23.531576      408 
   23.540161      407 
   23.548746      406 
   23.557331      406 
   23.565916      406 
   23.574501      406 
   23.583086      406 
   23.591671      406 
   23.600256      406 
   23.608841      405 
   23.617426      405 
   23.626012      405 
   23.634597      403 
   23.643182      403 
   23.651767      402 
   23.660352      401 
   23.668937      401 
   23.677522      401 
   23.686107      401 
   23.694692      400 
   23.703277      400 
   23.711862      400 
   23.720447      400 
   23.729032      399 
   23.737617      399 
   23.746202      399 
   23.754787      399 
   23.763372      399 
   23.771957      399 
   23.780542      397 
   23.789127      396 
   23.797712      396 
   23.806297      395 
   23.814882      395 
   23.823467      395 
   23.832052      395 
   23.840637      395 
   23.849222      394 
   23.857807      393 
   23.866392      393 
   23.874977      393 
   23.883563      393 
   23.892148      393 
   23.900733      393 
   23.909318      393 
   23.917903      393 
   23.926488      392 
   23.935073      392 
   23.943658      392 
   23.952243      392 
   23.960828      391 
   23.969413      391 
   23.977998      390 
   23.986583      390 
   23.995168      390 
   24.003753      388 
   24.012338      388 
   24.020923      388 
   24.029508      388 
   24.038093      387 
   24.046678      387 
   24.055263      387 
   24.063848      387 
   24.072433      387 
   24.081018      387 
   24.089603      387 
   24.098188      387 
   24.106773      387 
   24.115358      387 
   24.123943      386 
   24.132528      385 
   24.141114      384 
   24.149699      383 
   24.158284      383 
   24.166869      383 
   24.175454      383 
   24.184039      383 
   24.192624      383 
   24.201209      382 
   24.209794      381 
   24.218379      381 
   24.226964      381 
   24.235549      381 
   24.244134      380 
   24.252719      380 
   24.261304      380 
   24.269889      380 
   24.278474      380 
   24.287059      380 
   24.295644      380 
   24.304229      378 
   24.312814      378 
   24.321399      378 
   24.329984      376 
   24.338569      376 
   24.347154      376 
   24.355739      376 
   24.364324      376 
   24.372909      375 
   24.381494      375 
   24.390079      375 
   24.398665      373 
    24.40725      373 
   24.415835      373 
    24.42442      373 
   24.433005      373 
    24.44159      372 
   24.450175      372 
    24.45876      372 
   24.467345      371 
    24.47593      370 
   24.484515      370 
     24.4931      370 
   24.501685      370 
    24.51027      370 
   24.518855      370 
    24.52744      369 
   24.536025      369 
    24.54461      368 
   24.553195      367 
    24.56178      366 
   24.570365      365 
    24.57895      365 
   24.587535      364 
    24.59612      364 
   24.604705      364 
    24.61329      364 
   24.621875      364 
    24.63046      364 
   24.639045      361 
    24.64763      360 
   24.656216      360 
   24.664801      360 
   24.673386      360 
   24.681971      359 
   24.690556      358 
   24.699141      358 
   24.707726      358 
   24.716311      358 
   24.724896      358 
   24.733481      358 
   24.742066      358 
   24.750651      358 
   24.759236      358 
   24.767821      357 
   24.776406      357 
   24.784991      356 
   24.793576      356 
   24.802161      355 
   24.810746      355 
   24.819331      353 
   24.827916      352 
   24.836501      351 
   24.845086      350 
   24.853671      350 
   24.862256      350 
   24.870841      350 
   24.879426      349 
   24.888011      348 
   24.896596      348 
   24.905181      347 
   24.913767      347 
   24.922352      347 
   24.930937      347 
   24.939522      347 
   24.948107      347 
   24.956692      347 
   24.965277      347 
   24.973862      347 
   24.982447      345 
   24.991032      344 
   24.999617      344 
   25.008202      344 
   25.016787      344 
   25.025372      343 
   25.033957      343 
   25.042542      343 
   25.051127      343 
   25.059712      343 
   25.068297      343 
   25.076882      341 
   25.085467      341 
   25.094052      341 
   25.102637      339 
   25.111222      339 
   25.119807      339 
   25.128392      339 
   25.136977      339 
   25.145562      339 
   25.154147      339 
   25.162732      339 
   25.171318      339 
   25.179903      339 
   25.188488      338 
   25.197073      338 
   25.205658      338 
   25.214243      337 
   25.222828      337 
   25.231413      337 
   25.239998      337 
   25.248583      336 
   25.257168      336 
   25.265753      336 
   25.274338      336 
   25.282923      336 
   25.291508      336 
   25.300093      335 
   25.308678      334 
   25.317263      334 
   25.325848      334 
   25.334433      334 
   25.343018      333 
   25.351603      333 
   25.360188      333 
   25.368773      332 
   25.377358      332 
   25.385943      332 
   25.394528      332 
   25.403113      331 
   25.411698      330 
   25.420283      330 
   25.428869      330 
   25.437454      328 
   25.446039      328 
   25.454624      328 
   25.463209      326 
   25.471794      326 
   25.480379      326 
   25.488964      325 
   25.497549      325 
   25.506134      325 
   25.514719      325 
   25.523304      324 
   25.531889      324 
   25.540474      324 
   25.549059      324 
   25.557644      323 
   25.566229      323 
   25.574814      323 
   25.583399      323 
   25.591984      322 
   25.600569      322 
   25.609154      322 
   25.617739      322 
   25.626324      322 
   25.634909      321 
   25.643494      320 
   25.652079      320 
   25.660664      320 
   25.669249      320 
   25.677834      319 
    25.68642      319 
   25.695005      319 
    25.70359      319 
   25.712175      316 
    25.72076      315 
   25.729345      315 
    25.73793      315 
   25.746515      314 
     25.7551      314 
   25.763685      314 
    25.77227      313 
   25.780855      313 
    25.78944      312 
   25.798025      312 
    25.80661      312 
   25.815195      311 
    25.82378      310 
   25.832365      309 
    25.84095      309 
   25.849535      309 
    25.85812      309 
   25.866705      309 
    25.87529      309 
   25.883875      308 
    25.89246      308 
   25.901045      308 
    25.90963      308 
   25.918215      308 
     25.9268      308 
   25.935385      307 
    25.94397      307 
   25.952556      307 
   25.961141      306 
   25.969726      305 
   25.978311      305 
   25.986896      305 
   25.995481      305 
   26.004066      304 
   26.012651      304 
   26.021236      303 
   26.029821      303 
   26.038406      303 
   26.046991      303 
   26.055576      299 
   26.064161      298 
   26.072746      298 
   26.081331      298 
   26.089916      298 
   26.098501      298 
   26.107086      297 
   26.115671      297 
   26.124256      297 
   26.132841      296 
   26.141426      296 
   26.150011      296 
   26.158596      296 
   26.167181      296 
   26.175766      295 
   26.184351      295 
   26.192936      295 
   26.201521      292 
   26.210107      292 
   26.218692      292 
   26.227277      292 
   26.235862      291 
   26.244447      291 
   26.253032      290 
   26.261617      289 
   26.270202      289 
   26.278787      289 
   26.287372      289 
   26.295957      289 
   26.304542      288 
   26.313127      288 
   26.321712      288 
   26.330297      287 
   26.338882      286 
   26.347467      286 
   26.356052      285 
   26.364637      285 
   26.373222      285 
   26.381807      285 
   26.390392      285 
   26.398977      285 
   26.407562      285 
   26.416147      285 
   26.424732      285 
   26.433317      285 
   26.441902      285 
   26.450487      284 
   26.459072      284 
   26.467658      283 
   26.476243      283 
   26.484828      283 
   26.493413      282 
   26.501998      282 
   26.510583      281 
   26.519168      280 
   26.527753      279 
   26.536338      279 
   26.544923      279 
   26.553508      278 
   26.562093      277 
   26.570678      277 
   26.579263      277 
   26.587848      277 
   26.596433      277 
   26.605018      277 
   26.613603      277 
   26.622188      277 
   26.630773      275 
   26.639358      275 
   26.647943      275 
   26.656528      275 
   26.665113      275 
   26.673698      275 
   26.682283      275 
   26.690868      274 
   26.699453      274 
   26.708038      273 
   26.716623      273 
   26.725209      272 
   26.733794      272 
   26.742379      270 
   26.750964      270 
   26.759549      270 
   26.768134      270 
   26.776719      270 
   26.785304      270 
   26.793889      269 
   26.802474      267 
   26.811059      267 
   26.819644      267 
   26.828229      267 
   26.836814      267 
   26.845399      267 
   26.853984      267 
   26.862569      267 
   26.871154      265 
   26.879739      265 
   26.888324      265 
   26.896909      265 
   26.905494      264 
   26.914079      264 
   26.922664      264 
   26.931249      264 
   26.939834      264 
   26.948419      264 
   26.957004      263 
   26.965589      263 
   26.974174      263 
    26.98276      263 
   26.991345      263 
    26.99993      263 
   27.008515      262 
     27.0171      262 
   27.025685      261 
    27.03427      261 
   27.042855      261 
    27.05144      261 
   27.060025      261 
    27.06861      260 
   27.077195      260 
    27.08578      260 
   27.094365      260 
    27.10295      260 
   27.111535      260 
    27.12012      259 
   27.128705      259 
    27.13729      257 
   27.145875      257 
    27.15446      257 
   27.163045      255 
    27.17163      255 
   27.180215      255 
     27.1888      255 
   27.197385      255 
    27.20597      254 
   27.214555      253 
    27.22314      253 
   27.231725      253 
   27.240311      251 
   27.248896      249 
   27.257481      248 
   27.266066      248 
   27.274651      248 
   27.283236      248 
   27.291821      248 
   27.300406      248 
   27.308991      248 
   27.317576      248 
   27.326161      247 
   27.334746      247 
   27.343331      247 
   27.351916      246 
   27.360501      245 
   27.369086      245 
   27.377671      245 
   27.386256      245 
   27.394841      243 
   27.403426      241 
   27.412011      241 
   27.420596      241 
   27.429181      241 
   27.437766      240 
   27.446351      239 
   27.454936      239 
   27.463521      239 
   27.472106      238 
   27.480691      238 
   27.489276      238 
   27.497862      238 
   27.506447      238 
   27.515032      238 
   27.523617      237 
   27.532202      235 
   27.540787      234 
   27.549372      234 
   27.557957      234 
   27.566542      234 
   27.575127      233 
   27.583712      233 
   27.592297      233 
   27.600882      233 
   27.609467      232 
   27.618052      232 
   27.626637      232 
   27.635222      232 
   27.643807      232 
   27.652392      231 
   27.660977      231 
   27.669562      230 
   27.678147      230 
   27.686732      228 
   27.695317      228 
   27.703902      226 
   27.712487      226 
   27.721072      226 
   27.729657      226 
   27.738242      226 
   27.746827      226 
   27.755413      226 
   27.763998      224 
   27.772583      224 
   27.781168      223 
   27.789753      223 
   27.798338      223 
   27.806923      223 
   27.815508      220 
   27.824093      219 
   27.832678      218 
   27.841263      218 
   27.849848      218 
   27.858433      217 
   27.867018      217 
   27.875603      217 
   27.884188      216 
   27.892773      216 
   27.901358      216 
   27.909943      216 
   27.918528      216 
   27.927113      215 
   27.935698      213 
   27.944283      213 
   27.952868      213 
   27.961453      213 
   27.970038      212 
   27.978623      211 
   27.987208      211 
   27.995793      210 
   28.004378      210 
   28.012964      209 
   28.021549      208 
   28.030134      207 
   28.038719      207 
   28.047304      207 
   28.055889      207 
   28.064474      207 
   28.073059      207 
   28.081644      207 
   28.090229      207 
   28.098814      207 
   28.107399      207 
   28.115984      207 
   28.124569      206 
   28.133154      205 
   28.141739      204 
   28.150324      204 
   28.158909      202 
   28.167494      201 
   28.176079      201 
   28.184664      201 
   28.193249      201 
   28.201834      201 
   28.210419      200 
   28.219004      200 
   28.227589      200 
   28.236174      200 
   28.244759      199 
   28.253344      198 
   28.261929      198 
   28.270515      198 
     28.2791      197 
   28.287685      197 
    28.29627      197 
   28.304855      197 
    28.31344      196 
   28.322025      196 
    28.33061      195 
   28.339195      195 
    28.34778      195 
   28.356365      195 
    28.36495      195 
   28.373535      194 
    28.38212      194 
   28.390705      194 
    28.39929      194 
   28.407875      194 
    28.41646      194 
   28.425045      194 
    28.43363      193 
   28.442215      192 
     28.4508      192 
   28.459385      192 
    28.46797      191 
   28.476555      191 
    28.48514      190 
   28.493725      189 
    28.50231      189 
   28.510895      189 
    28.51948      188 
   28.528066      187 
   28.536651      187 
   28.545236      187 
   28.553821      186 
   28.562406      186 
   28.570991      185 
   28.579576      185 
   28.588161      183 
   28.596746      182 
   28.605331      182 
   28.613916      180 
   28.622501      180 
   28.631086      180 
   28.639671      180 
   28.648256      180 
   28.656841      180 
   28.665426      180 
   28.674011      180 
   28.682596      180 
   28.691181      180 
   28.699766      180 
   28.708351      180 
   28.716936      180 
   28.725521      180 
   28.734106      180 
   28.742691      179 
   28.751276      179 
   28.759861      179 
   28.768446      179 
   28.777031      179 
   28.785617      178 
   28.794202      177 
   28.802787      177 
   28.811372      177 
   28.819957      175 
   28.828542      175 
   28.837127      175 
   28.845712      175 
   28.854297      173 
   28.862882      173 
   28.871467      173 
   28.880052      173 
   28.888637      172 
   28.897222      170 
   28.905807      169 
   28.914392      169 
   28.922977      169 
   28.931562      166 
   28.940147      166 
   28.948732      166 
   28.957317      166 
   28.965902      166 
   28.974487      166 
   28.983072      166 
   28.991657      165 
   29.000242      165 
   29.008827      165 
   29.017412      165 
   29.025997      164 
   29.034582      164 
   29.043168      164 
   29.051753      164 
   29.060338      163 
   29.068923      163 
   29.077508      163 
   29.086093      163 
   29.094678      163 
   29.103263      163 
   29.111848      163 
   29.120433      163 
   29.129018      163 
   29.137603      162 
   29.146188      160 
   29.154773      160 
   29.163358      160 
   29.171943      159 
   29.180528      159 
   29.189113      159 
   29.197698      159 
   29.206283      157 
   29.214868      157 
   29.223453      156 
   29.232038      156 
   29.240623      155 
   29.249208      154 
   29.257793      153 
   29.266378      152 
   29.274963      152 
   29.283548      152 
   29.292133      152 
   29.300719      152 
   29.309304      151 
   29.317889      151 
   29.326474      151 
   29.335059      151 
   29.343644      150 
   29.352229      150 
   29.360814      149 
   29.369399      149 
   29.377984      149 
   29.386569      148 
   29.395154      148 
   29.403739      148 
   29.412324      148 
   29.420909      148 
   29.429494      148 
   29.438079      148 
   29.446664      147 
   29.455249      146 
   29.463834      145 
   29.472419      145 
   29.481004      145 
   29.489589      145 
   29.498174      145 
   29.506759      145 
   29.515344      145 
   29.523929      144 
   29.532514      144 
   29.541099      143 
   29.549684      143 
    29.55827      143 
   29.566855      143 
    29.57544      142 
   29.584025      142 
    29.59261      142 
   29.601195      142 
    29.60978      141 
   29.618365      140 
    29.62695      140 
   29.635535      139 
    29.64412      137 
   29.652705      137 
    29.66129      137 
   29.669875      137 
    29.67846      137 
   29.687045      137 
    29.69563      137 
   29.704215      137 
     29.7128      137 
   29.721385      137 
    29.72997      134 
   29.738555      134 
    29.74714      132 
   29.755725      132 
    29.76431      132 
   29.772895      132 
    29.78148      132 
   29.790065      132 
    29.79865      132 
   29.807235      132 
    29.81582      132 
   29.824406      131 
   29.832991      131 
   29.841576      130 
   29.850161      130 
   29.858746      130 
   29.867331      130 
   29.875916      130 
   29.884501      130 
   29.893086      130 
   29.901671      129 
   29.910256      129 
   29.918841      128 
   29.927426      128 
   29.936011      128 
   29.944596      128 
   29.953181      127 
   29.961766      127 
   29.970351      127 
   29.978936      127 
   29.987521      126 
   29.996106      126 
   30.004691      126 
   30.013276      125 
   30.021861      124 
   30.030446      124 
   30.039031      124 
   30.047616      122 
   30.056201      122 
   30.064786      121 
   30.073371      121 
   30.081957      120 
   30.090542      120 
   30.099127      120 
   30.107712      120 
   30.116297      120 
   30.124882      120 
   30.133467      119 
   30.142052      118 
   30.150637      118 
   30.159222      118 
   30.167807      118 
   30.176392      117 
   30.184977      117 
   30.193562      117 
   30.202147      117 
   30.210732      116 
   30.219317      116 
   30.227902      116 
   30.236487      116 
   30.245072      116 
   30.253657      115 
   30.262242      115 
   30.270827      113 
   30.279412      113 
   30.287997      113 
   30.296582      112 
   30.305167      112 
   30.313752      112 
   30.322337      112 
   30.330922      111 
   30.339508      111 
   30.348093      111 
   30.356678      111 
   30.365263      111 
   30.373848      111 
   30.382433      111 
   30.391018      110 
   30.399603      110 
   30.408188      109 
   30.416773      109 
   30.425358      109 
   30.433943      109 
   30.442528      108 
   30.451113      108 
   30.459698      108 
   30.468283      108 
   30.476868      108 
   30.485453      107 
   30.494038      107 
   30.502623      107 
   30.511208      106 
   30.519793      105 
   30.528378      105 
   30.536963      105 
   30.545548      104 
   30.554133      103 
   30.562718      103 
   30.571303      102 
   30.579888      102 
   30.588473      101 
   30.597059      101 
   30.605644      101 
   30.614229      100 
   30.622814      100 
   30.631399      100 
   30.639984      100 
   30.648569       99 
   30.657154       99 
   30.665739       98 
   30.674324       98 
   30.682909       97 
   30.691494       97 
   30.700079       95 
   30.708664       94 
   30.717249       94 
   30.725834       94 
   30.734419       94 
   30.743004       94 
   30.751589       94 
   30.760174       94 
   30.768759       93 
   30.777344       93 
   30.785929       93 
   30.794514       93 
   30.803099       93 
   30.811684       93 
   30.820269       93 
   30.828854       93 
   30.837439       91 
   30.846024       90 
    30.85461       90 
   30.863195       90 
    30.87178       90 
   30.880365       88 
    30.88895       87 
   30.897535       85 
    30.90612       85 
   30.914705       85 
    30.92329       85 
   30.931875       83 
    30.94046       83 
   30.949045       83 
    30.95763       83 
   30.966215       83 
     30.9748       83 
   30.983385       83 
    30.99197       83 
   31.000555       80 
    31.00914       80 
   31.017725       80 
    31.02631       80 
   31.034895       80 
    31.04348       79 
   31.052065       77 
    31.06065       77 
   31.069235       77 
    31.07782       76 
   31.086405       76 
    31.09499       76 
   31.103575       76 
   31.112161       76 
   31.120746       75 
   31.129331       75 
   31.137916       75 
   31.146501       75 
   31.155086       75 
   31.163671       75 
   31.172256       74 
   31.180841       74 
   31.189426       73 
   31.198011       73 
   31.206596       73 
   31.215181       73 
   31.223766       73 
   31.232351       73 
   31.240936       72 
   31.249521       71 
   31.258106       71 
   31.266691       70 
   31.275276       70 
   31.283861       70 
   31.292446       70 
   31.301031       70 
   31.309616       69 
   31.318201       68 
   31.326786       67 
   31.335371       67 
   31.343956       66 
   31.352541       66 
   31.361126       65 
   31.369712       65 
   31.378297       65 
   31.386882       65 
   31.395467       64 
   31.404052       64 
   31.412637       64 
   31.421222       64 
   31.429807       64 
   31.438392       64 
   31.446977       64 
   31.455562       63 
   31.464147       63 
   31.472732       63 
   31.481317       63 
   31.489902       62 
   31.498487       62 
   31.507072       62 
   31.515657       62 
   31.524242       60 
   31.532827       60 
   31.541412       60 
   31.549997       60 
   31.558582       60 
   31.567167       60 
   31.575752       58 
   31.584337       58 
   31.592922       58 
   31.601507       58 
   31.610092       58 
   31.618677       58 
   31.627263       58 
   31.635848       58 
   31.644433       58 
   31.653018       55 
   31.661603       54 
   31.670188       54 
   31.678773       54 
   31.687358       54 
   31.695943       54 
   31.704528       54 
   31.713113       52 
   31.721698       51 
   31.730283       50 
   31.738868       50 
   31.747453       50 
   31.756038       50 
   31.764623       49 
   31.773208       49 
   31.781793       49 
   31.790378       49 
   31.798963       48 
   31.807548       48 
   31.816133       46 
   31.824718       46 
   31.833303       46 
   31.841888       45 
   31.850473       45 
   31.859058       45 
   31.867643       45 
   31.876228       45 
   31.884814       45 
   31.893399       45 
   31.901984       45 
   31.910569       45 
   31.919154       44 
   31.927739       44 
   31.936324       44 
   31.944909       44 
   31.953494       43 
   31.962079       43 
   31.970664       43 
   31.979249       42 
   31.987834       42 
   31.996419       40 
   32.005004       39 
   32.013589       39 
   32.022174       39 
   32.030759       38 
   32.039344       38 
   32.047929       38 
   32.056514       37 
   32.065099       36 
   32.073684       36 
   32.082269       36 
   32.090854       36 
   32.099439       36 
   32.108024       36 
   32.116609       34 
   32.125194       34 
   32.133779       33 
   32.142365       33 
    32.15095       33 
   32.159535       33 
    32.16812       33 
   32.176705       33 
    32.18529       33 
   32.193875       33 
    32.20246       33 
   32.211045       32 
    32.21963       32 
   32.228215       31 
     32.2368       31 
   32.245385       31 
    32.25397       31 
   32.262555       31 
    32.27114       31 
   32.279725       31 
    32.28831       27 
   32.296895       27 
    32.30548       26 
   32.314065       26 
    32.32265       25 
   32.331235       24 
    32.33982       23 
   32.348405       23 
    32.35699       23 
   32.365575       23 
    32.37416       23 
   32.382745       23 
    32.39133       21 
   32.399916       21 
   32.408501       21 
   32.417086       21 
   32.425671       21 
   32.434256       21 
   32.442841       20 
   32.451426       20 
   32.460011       20 
   32.468596       20 
   32.477181       20 
   32.485766       19 
   32.494351       19 
   32.502936       19 
   32.511521       18 
   32.520106       17 
   32.528691       17 
   32.537276       17 
   32.545861       17 
   32.554446       16 
   32.563031       16 
   32.571616       16 
   32.580201       16 
   32.588786       16 
   32.597371       16 
   32.605956       16 
   32.614541       16 
   32.623126       16 
   32.631711       16 
   32.640296       15 
   32.648881       14 
   32.657467       13 
   32.666052       13 
   32.674637       12 
   32.683222       12 
   32.691807       12 
   32.700392       12 
   32.708977       12 
   32.717562       11 
   32.726147       11 
   32.734732       11 
   32.743317        9 
   32.751902        8 
   32.760487        8 
   32.769072        8 
   32.777657        8 
   32.786242        7 
   32.794827        7 
   32.803412        7 
   32.811997        7 
   32.820582        7 
   32.829167        7 
   32.837752        7 
   32.846337        7 
   32.854922        7 
   32.863507        6 
   32.872092        6 
   32.880677        6 
   32.889262        4 
   32.897847        4 
   32.906432        4 
   32.915018        4 
   32.923603        3 
   32.932188        3 
   32.940773        3 
   32.949358        3 
   32.957943        3 
   32.966528        2 
   32.975113        2 
   32.983698        1 
   32.992283        1 
   33.000868        0 
   33.009453        0 
   33.018038        0 
   33.026623        0 
   33.035208        0 
   33.043793        0 
   33.052378        0 
   33.060963        0 
   33.069548        0 
   33.078133        0 
   33.086718        0 
   33.095303        0 
   33.103888        0 
   33.112473        0 
   33.121058        0 
   33.129643        0 
   33.138228        0 
   33.146813        0 
   33.155398        0 
   33.163983        0 
   33.172569        0 
   33.181154        0 
   33.189739        0 
   33.198324        0 
   33.206909        0 
   33.215494        0 
   33.224079        0 
   33.232664        0 
   33.241249        0 
   33.249834        0 
   33.258419        0 
   33.267004        0 
   33.275589        0 
   33.284174        0 
   33.292759        0 
   33.301344        0 
   33.309929        0 
   33.318514        0 
   33.327099        0 
   33.335684        0 
   33.344269        0 
   33.352854        0 
   33.361439        0 
   33.370024        0 
   33.378609        0 
   33.387194        0 
   33.395779        0 
   33.404364        0 
   33.412949        0 
   33.421534        0 
   33.430119        0 
   33.438705        0 
    33.44729        0 
   33.455875        0 
    33.46446        0 
   33.473045        0 
    33.48163        0 
   33.490215        0 
     33.4988        0 
   33.507385        0 
    33.51597        0 
   33.524555        0 
    33.53314        0 
   33.541725        0 
    33.55031        0 
   33.558895        0 
    33.56748        0 
   33.576065        0 
    33.58465        0 
   33.593235        0 
    33.60182        0 
   33.610405        0 
    33.61899        0 
   33.627575        0 
    33.63616        0 
   33.644745        0 
    33.65333        0 
   33.661915        0 
     33.6705        0 
   33.679085        0 
    33.68767        0 
   33.696256        0 
   33.704841        0 
   33.713426        0 
   33.722011        0 
   33.730596        0 
   33.739181        0 
   33.747766        0 
   33.756351        0 
   33.764936        0 
   33.773521        0 
   33.782106        0 
   33.790691        0 
   33.799276        0 
   33.807861        0 
   33.816446        0 
   33.825031        0 
   33.833616        0 
   33.842201        0 
   33.850786        0 
   33.859371        0 
   33.867956        0 
   33.876541        0 
   33.885126        0 
   33.893711        0 
   33.902296        0 
   33.910881        0 
   33.919466        0 
   33.928051        0 
   33.936636        0 
   33.945221        0 
   33.953807        0 
   33.962392        0 
   33.970977        0 
   33.979562        0 
   33.988147        0 
   33.996732        0 
   34.005317        0 
   34.013902        0 
   34.022487        0 
   34.031072        0 
   34.039657        0 
   34.048242        0 
   34.056827        0 
   34.065412        0 
   34.073997        0 
   34.082582        0 
   34.091167        0 
   34.099752        0 
   34.108337        0 
   34.116922        0 
   34.125507        0 
   34.134092        0 
   34.142677        0 
   34.151262        0 
   34.159847        0 
   34.168432        0 
   34.177017        0 
   34.185602        0 
   34.194187        0 
   34.202772        0 
   34.211358        0 
   34.219943        0 
   34.228528        0 
   34.237113        0 
   34.245698        0 
   34.254283        0 
   34.262868        0 
   34.271453        0 
   34.280038        0 
   34.288623        0 
   34.297208        0 
   34.305793        0 
   34.314378        0 
   34.322963        0 
   34.331548        0 
   34.340133        0 
   34.348718        0 
   34.357303        0 
   34.365888        0 
   34.374473        0 
   34.383058        0 
   34.391643        0 
   34.400228        0 
   34.408813        0 
   34.417398        0 
   34.425983        0 
   34.434568        0 
   34.443153        0 
   34.451738        0 
   34.460323        0 
   34.468909        0 
   34.477494        0 
   34.486079        0 
   34.494664        0 
   34.503249        0 
   34.511834        0 
   34.520419        0 
   34.529004        0 
   34.537589        0 
   34.546174        0 
   34.554759        0 
   34.563344        0 
   34.571929        0 
   34.580514        0 
   34.589099        0 
   34.597684        0 
   34.606269        0 
   34.614854        0 
   34.623439        0 
   34.632024        0 
   34.640609        0 
   34.649194        0 
   34.657779        0 
   34.666364        0 
   34.674949        0 
   34.683534        0 
   34.692119        0 
   34.700704        0 
   34.709289        0 
   34.717874        0 
    34.72646        0 
   34.735045        0 
    34.74363        0 
   34.752215        0 
     34.7608        0 
   34.769385        0 
    34.77797        0 
   34.786555        0 
    34.79514        0 
   34.803725        0 
    34.81231        0 
   34.820895        0 
    34.82948        0 
   34.838065        0 
    34.84665        0 
   34.855235        0 
    34.86382        0 
   34.872405        0 
    34.88099        0 
   34.889575        0 
    34.89816        0 
   34.906745        0 
    34.91533        0 
   34.923915        0 
     34.9325        0 
   34.941085        0 
    34.94967        0 
   34.958255        0 
    34.96684        0 
   34.975425        0 
   34.984011        0 
   34.992596        0 
   35.001181        0 
   35.009766        0 
   35.018351        0 
   35.026936        0 
   35.035521        0 
   35.044106        0 
   35.052691        0 
   35.061276        0 
   35.069861        0 
   35.078446        0 
   35.087031        0 
   35.095616        0 
   35.104201        0 
   35.112786        0 
   35.121371        0 
   35.129956        0 
   35.138541        0 
   35.147126        0 
   35.155711        0 
   35.164296        0 
   35.172881        0 
   35.181466        0 
   35.190051        0 
   35.198636        0 
   35.207221        0 
   35.215806        0 
   35.224391        0 
   35.232976        0 
   35.241562        0 
   35.250147        0 
   35.258732        0 
   35.267317        0 
   35.275902        0 
   35.284487        0 
   35.293072        0 
   35.301657        0 
   35.310242        0 
   35.318827        0 
   35.327412        0 
   35.335997        0 
   35.344582        0 
   35.353167        0 
   35.361752        0 
   35.370337        0 
   35.378922        0 
   35.387507        0 
   35.396092        0 
   35.404677        0 
   35.413262        0 
   35.421847        0 
   35.430432        0 
   35.439017        0 
   35.447602        0 
   35.456187        0 
   35.464772        0 
   35.473357        0 
   35.481942        0 
   35.490527        0 
   35.499113        0 
   35.507698        0 
   35.516283        0 
   35.524868        0 
   35.533453        0 
   35.542038        0 
   35.550623        0 
   35.559208        0 
   35.567793        0 
   35.576378        0 
   35.584963        0 
   35.593548        0 
   35.602133        0 
   35.610718        0 
   35.619303        0 
   35.627888        0 
   35.636473        0 
   35.645058        0 
   35.653643        0 
   35.662228        0 
   35.670813        0 
   35.679398        0 
   35.687983        0 
   35.696568        0 
   35.705153        0 
   35.713738        0 
   35.722323        0 
   35.730908        0 
   35.739493        0 
   35.748078        0 
   35.756664        0 
   35.765249        0 
   35.773834        0 
   35.782419        0 
   35.791004        0 
   35.799589        0 
   35.808174        0 
   35.816759        0 
   35.825344        0 
   35.833929        0 
   35.842514        0 
   35.851099        0 
   35.859684        0 
   35.868269        0 
   35.876854        0 
   35.885439        0 
   35.894024        0 
   35.902609        0 
   35.911194        0 
   35.919779        0 
   35.928364        0 
   35.936949        0 
   35.945534        0 
   35.954119        0 
   35.962704        0 
   35.971289        0 
   35.979874        0 
   35.988459        0 
   35.997044        0 
   36.005629        0 
   36.014215        0 
     36.0228        0 
   36.031385        0 
    36.03997        0 
   36.048555        0 
    36.05714        0 
   36.065725        0 
    36.07431        0 
   36.082895        0 
    36.09148        0 
   36.100065        0 
    36.10865        0 
   36.117235        0 
    36.12582        0 
   36.134405        0 
    36.14299        0 
   36.151575        0 
    36.16016        0 
   36.168745        0 
    36.17733        0 
   36.185915        0 
     36.1945        0 
   36.203085        0 
    36.21167        0 
   36.220255        0 
